 VARIABLES = "X", "Y", "P", "U", "V", "GradPX", "GradPY", "DivV", "LapP", "DivVP", "curlV"
 ZONE I=          73 , J=          81 , DATAPACKING=BLOCK, VARLOCATION=([3-40]=CELLCENTERED)
     -0.5000000     -0.4995241     -0.4980974     -0.4957224     -0.4924039     -0.4881480     -0.4829629     -0.4768585     -0.4698463     -0.4619398     -0.4531539     -0.4435055     -0.4330128     -0.4216958     -0.4095761     -0.3966767     -0.3830223     -0.3686388     -0.3535535     -0.3377952     -0.3213939     -0.3043808     -0.2867883     -0.2686499     -0.2500001     -0.2308744     -0.2113093     -0.1913419     -0.1710102     -0.1503531     -0.1294097     -0.1082200     -0.0868243     -0.0652633     -0.0435781     -0.0218099      0.0000000      0.0218096      0.0435777      0.0652628      0.0868239      0.1082197      0.1294093      0.1503526      0.1710099      0.1913416      0.2113089      0.2308740      0.2499998      0.2686497      0.2867880      0.3043804      0.3213936      0.3377950      0.3535532      0.3686384      0.3830221      0.3966766      0.4095759      0.4216955      0.4330126      0.4435053      0.4531538      0.4619396      0.4698462      0.4768584      0.4829628      0.4881479      0.4924038      0.4957224      0.4980973      0.4995241      0.5000000     -0.5097817     -0.5092965     -0.5078418     -0.5054204     -0.5020369     -0.4976978     -0.4924113     -0.4861874     -0.4790381     -0.4709769     -0.4620191     -0.4521819     -0.4414839     -0.4299455     -0.4175888     -0.4044371     -0.3905155     -0.3758506     -0.3604701     -0.3444036     -0.3276814     -0.3103355     -0.2923989     -0.2739056     -0.2548909     -0.2353911     -0.2154432
     -0.1950851     -0.1743557     -0.1532945     -0.1319414     -0.1103371     -0.0885228     -0.0665400     -0.0444306     -0.0222366     -0.0000000      0.0222363      0.0444302      0.0665396      0.0885225      0.1103369      0.1319410      0.1532940      0.1743554      0.1950849      0.2154428      0.2353907      0.2548906      0.2739054      0.2923985      0.3103351      0.3276811      0.3444034      0.3604699      0.3758502      0.3905152      0.4044369      0.4175886      0.4299453      0.4414837      0.4521818      0.4620190      0.4709767      0.4790380      0.4861874      0.4924112      0.4976977      0.5020369      0.5054204      0.5078418      0.5092964      0.5097817     -0.5200517     -0.5195567     -0.5180727     -0.5156025     -0.5121509     -0.5077243     -0.5023314     -0.4959821     -0.4886887     -0.4804651     -0.4713269     -0.4612915     -0.4503780     -0.4386072     -0.4260015     -0.4125848     -0.3983828     -0.3834224     -0.3677321     -0.3513419     -0.3342829     -0.3165875     -0.2982895     -0.2794237     -0.2600259     -0.2401333     -0.2197835     -0.1990153     -0.1778683     -0.1563827     -0.1345994     -0.1125600     -0.0903062     -0.0678805     -0.0453257     -0.0226845     -0.0000000      0.0226843      0.0453253      0.0678801      0.0903058      0.1125597      0.1345991      0.1563822      0.1778679      0.1990151      0.2197831      0.2401328      0.2600256      0.2794235      0.2982892      0.3165871      0.3342825      0.3513417
      0.3677319      0.3834220      0.3983825      0.4125846      0.4260012      0.4386069      0.4503778      0.4612914      0.4713268      0.4804649      0.4886886      0.4959820      0.5023313      0.5077243      0.5121509      0.5156025      0.5180727      0.5195566      0.5200517     -0.5308364     -0.5303312     -0.5288164     -0.5262950     -0.5227718     -0.5182535     -0.5127487     -0.5062677     -0.4988231     -0.4904289     -0.4811012     -0.4708577     -0.4597179     -0.4477029     -0.4348358     -0.4211409     -0.4066444     -0.3913738     -0.3753581     -0.3586280     -0.3412152     -0.3231528     -0.3044754     -0.2852183     -0.2654183     -0.2451131     -0.2243413     -0.2031424     -0.1815569     -0.1596258     -0.1373907     -0.1148942     -0.0921790     -0.0692882     -0.0462656     -0.0231550     -0.0000000      0.0231547      0.0462653      0.0692877      0.0921786      0.1148940      0.1373904      0.1596253      0.1815565      0.2031422      0.2243410      0.2451127      0.2654180      0.2852181      0.3044750      0.3231525      0.3412149      0.3586278      0.3753578      0.3913734      0.4066441      0.4211407      0.4348356      0.4477026      0.4597177      0.4708576      0.4811011      0.4904287      0.4988230      0.5062677      0.5127485      0.5182534      0.5227718      0.5262950      0.5288164      0.5303311      0.5308364     -0.5421593     -0.5416433     -0.5400962     -0.5375210     -0.5339227     -0.5293080     -0.5236857     -0.5170665
     -0.5094631     -0.5008899     -0.4913632     -0.4809012     -0.4695238     -0.4572525     -0.4441109     -0.4301240     -0.4153182     -0.3997218     -0.3833646     -0.3662776     -0.3484934     -0.3300458     -0.3109699     -0.2913021     -0.2710797     -0.2503414     -0.2291266     -0.2074755     -0.1854295     -0.1630306     -0.1403213     -0.1173449     -0.0941452     -0.0707662     -0.0472525     -0.0236489     -0.0000000      0.0236486      0.0472521      0.0707657      0.0941448      0.1173447      0.1403209      0.1630301      0.1854292      0.2074753      0.2291262      0.2503410      0.2710794      0.2913019      0.3109696      0.3300454      0.3484930      0.3662774      0.3833643      0.3997215      0.4153180      0.4301237      0.4441107      0.4572522      0.4695236      0.4809011      0.4913630      0.5008897      0.5094630      0.5170664      0.5236856      0.5293078      0.5339226      0.5375210      0.5400962      0.5416432      0.5421593     -0.5540482     -0.5535209     -0.5519399     -0.5493083     -0.5456311     -0.5409151     -0.5351695     -0.5284052     -0.5206351     -0.5118738     -0.5021383     -0.4914469     -0.4798199     -0.4672796     -0.4538498     -0.4395561     -0.4244257     -0.4084873     -0.3917713     -0.3743097     -0.3561355     -0.3372833     -0.3177891     -0.2976900     -0.2770242     -0.2558312     -0.2341511     -0.2120252     -0.1894958     -0.1666057     -0.1433984     -0.1199182     -0.0962097     -0.0723180     -0.0482887
     -0.0241675     -0.0000000      0.0241672      0.0482883      0.0723175      0.0962093      0.1199179      0.1433980      0.1666052      0.1894955      0.2120250      0.2341507      0.2558307      0.2770239      0.2976898      0.3177888      0.3372829      0.3561351      0.3743095      0.3917711      0.4084869      0.4244254      0.4395559      0.4538496      0.4672793      0.4798197      0.4914467      0.5021381      0.5118737      0.5206349      0.5284052      0.5351694      0.5409150      0.5456309      0.5493082      0.5519399      0.5535209      0.5540482     -0.5665323     -0.5659931     -0.5643765     -0.5616856     -0.5579255     -0.5531033     -0.5472282     -0.5403115     -0.5323663     -0.5234076     -0.5134527     -0.5025203     -0.4906315     -0.4778086     -0.4640762     -0.4494604     -0.4339890     -0.4176915     -0.4005989     -0.3827438     -0.3641601     -0.3448831     -0.3249497     -0.3043977     -0.2832663     -0.2615957     -0.2394270     -0.2168027     -0.1937656     -0.1703597     -0.1466295     -0.1226202     -0.0983775     -0.0739475     -0.0493768     -0.0247120     -0.0000000      0.0247117      0.0493763      0.0739470      0.0983771      0.1226200      0.1466291      0.1703592      0.1937653      0.2168024      0.2394267      0.2615952      0.2832659      0.3043975      0.3249494      0.3448828      0.3641597      0.3827436      0.4005986      0.4176912      0.4339887      0.4494602      0.4640760      0.4778083      0.4906313      0.5025202
      0.5134525      0.5234075      0.5323662      0.5403115      0.5472282      0.5531031      0.5579253      0.5616856      0.5643765      0.5659931      0.5665323     -0.5796404     -0.5790888     -0.5774348     -0.5746816     -0.5708345     -0.5659007     -0.5598897     -0.5528129     -0.5446839     -0.5355180     -0.5253327     -0.5141474     -0.5019834     -0.4888639     -0.4748137     -0.4598598     -0.4440305     -0.4273559     -0.4098678     -0.3915995     -0.3725858     -0.3528629     -0.3324682     -0.3114407     -0.2898203     -0.2676483     -0.2449668     -0.2218190     -0.1982489     -0.1743014     -0.1500222     -0.1254573     -0.1006537     -0.0756585     -0.0505192     -0.0252838     -0.0000000      0.0252835      0.0505188      0.0756579      0.1006533      0.1254571      0.1500218      0.1743009      0.1982485      0.2218187      0.2449664      0.2676478      0.2898200      0.3114405      0.3324679      0.3528625      0.3725855      0.3915993      0.4098675      0.4273555      0.4440302      0.4598596      0.4748135      0.4888635      0.5019832      0.5141473      0.5253325      0.5355178      0.5446838      0.5528129      0.5598896      0.5659006      0.5708343      0.5746816      0.5774347      0.5790887      0.5796404     -0.5934039     -0.5928391     -0.5911458     -0.5883272     -0.5843888     -0.5793379     -0.5731842     -0.5659394     -0.5576173     -0.5482337     -0.5378066     -0.5263557     -0.5139029     -0.5004718     -0.4860881     -0.4707791
     -0.4545739     -0.4375033     -0.4196000     -0.4008979     -0.3814328     -0.3612415     -0.3403626     -0.3188358     -0.2967021     -0.2740036     -0.2507835     -0.2270860     -0.2029562     -0.1784402     -0.1535844     -0.1284363     -0.1030437     -0.0774550     -0.0517188     -0.0258841     -0.0000000      0.0258838      0.0517183      0.0774544      0.1030433      0.1284360      0.1535840      0.1784396      0.2029559      0.2270857      0.2507831      0.2740031      0.2967017      0.3188356      0.3403623      0.3612411      0.3814324      0.4008978      0.4195997      0.4375030      0.4545736      0.4707789      0.4860878      0.5004715      0.5139027      0.5263556      0.5378065      0.5482335      0.5576171      0.5659393      0.5731841      0.5793378      0.5843887      0.5883272      0.5911458      0.5928391      0.5934039     -0.6078556     -0.6072770     -0.6055425     -0.6026553     -0.5986210     -0.5934470     -0.5871434     -0.5797222     -0.5711975     -0.5615854     -0.5509043     -0.5391746     -0.5264184     -0.5126602     -0.4979262     -0.4822444     -0.4656445     -0.4481582     -0.4298189     -0.4106614     -0.3907222     -0.3700391     -0.3486518     -0.3266007     -0.3039279     -0.2806766     -0.2568910     -0.2326164     -0.2078990     -0.1827859     -0.1573248     -0.1315642     -0.1055532     -0.0793413     -0.0529783     -0.0265145     -0.0000000      0.0265142      0.0529779      0.0793407      0.1055528      0.1315639      0.1573244
      0.1827853      0.2078986      0.2326162      0.2568907      0.2806761      0.3039276      0.3266005      0.3486514      0.3700387      0.3907218      0.4106612      0.4298186      0.4481578      0.4656442      0.4822442      0.4979260      0.5126599      0.5264182      0.5391744      0.5509041      0.5615851      0.5711973      0.5797221      0.5871434      0.5934469      0.5986208      0.6026552      0.6055425      0.6072770      0.6078556     -0.6230300     -0.6224371     -0.6206592     -0.6176999     -0.6135648     -0.6082618     -0.6018009     -0.5941944     -0.5854567     -0.5756047     -0.5646570     -0.5526344     -0.5395599     -0.5254583     -0.5103564     -0.4942830     -0.4772688     -0.4593460     -0.4405488     -0.4209131     -0.4004761     -0.3792768     -0.3573555     -0.3347539     -0.3115151     -0.2876834     -0.2633040     -0.2384234     -0.2130890     -0.1873489     -0.1612522     -0.1348486     -0.1081882     -0.0813220     -0.0543009     -0.0271764     -0.0000000      0.0271761      0.0543004      0.0813214      0.1081878      0.1348483      0.1612518      0.1873484      0.2130886      0.2384232      0.2633036      0.2876829      0.3115148      0.3347537      0.3573551      0.3792764      0.4004757      0.4209129      0.4405485      0.4593456      0.4772685      0.4942829      0.5103561      0.5254579      0.5395597      0.5526343      0.5646569      0.5756045      0.5854566      0.5941942      0.6018007      0.6082616      0.6135647      0.6176999
      0.6206592      0.6224370      0.6230300     -0.6389626     -0.6383545     -0.6365311     -0.6334962     -0.6292554     -0.6238166     -0.6171905     -0.6093895     -0.6004285     -0.5903245     -0.5790968     -0.5667668     -0.5533579     -0.5388957     -0.5234076     -0.5069232     -0.4894738     -0.4710927     -0.4518149     -0.4316770     -0.4107173     -0.3889759     -0.3664940     -0.3433145     -0.3194814     -0.2950402     -0.2700374     -0.2445205     -0.2185382     -0.1921399     -0.1653759     -0.1382970     -0.1109549     -0.0834016     -0.0556895     -0.0278714     -0.0000000      0.0278711      0.0556890      0.0834010      0.1109544      0.1382967      0.1653755      0.1921394      0.2185378      0.2445203      0.2700370      0.2950397      0.3194811      0.3433143      0.3664936      0.3889755      0.4107170      0.4316767      0.4518146      0.4710923      0.4894736      0.5069230      0.5234073      0.5388953      0.5533577      0.5667667      0.5790966      0.5903242      0.6004283      0.6093894      0.6171904      0.6238165      0.6292552      0.6334961      0.6365311      0.6383544      0.6389626     -0.6556919     -0.6550678     -0.6531968     -0.6500823     -0.6457305     -0.6401494     -0.6333497     -0.6253445     -0.6161488     -0.6057804     -0.5942587     -0.5816059     -0.5678459     -0.5530050     -0.5371114     -0.5201955     -0.5022892     -0.4834268     -0.4636443     -0.4429791     -0.4214707     -0.3991601     -0.3760895     -0.3523031
     -0.3278461     -0.3027650     -0.2771075     -0.2509226     -0.2242600     -0.1971705     -0.1697057     -0.1419179     -0.1138599     -0.0855852     -0.0571476     -0.0286011     -0.0000000      0.0286008      0.0571471      0.0855846      0.1138595      0.1419176      0.1697053      0.1971700      0.2242596      0.2509223      0.2771071      0.3027644      0.3278457      0.3523029      0.3760892      0.3991596      0.4214704      0.4429789      0.4636439      0.4834264      0.5022889      0.5201952      0.5371112      0.5530046      0.5678456      0.5816057      0.5942585      0.6057801      0.6161487      0.6253444      0.6333496      0.6401492      0.6457304      0.6500823      0.6531968      0.6550677      0.6556919     -0.6732579     -0.6726172     -0.6706960     -0.6674982     -0.6630297     -0.6572991     -0.6503173     -0.6420976     -0.6326556     -0.6220093     -0.6101790     -0.5971872     -0.5830586     -0.5678201     -0.5515007     -0.5341316     -0.5157456     -0.4963779     -0.4760654     -0.4548466     -0.4327620     -0.4098536     -0.3861651     -0.3617414     -0.3366291     -0.3108761     -0.2845313     -0.2576448     -0.2302680     -0.2024528     -0.1742522     -0.1457199     -0.1169102     -0.0878780     -0.0586786     -0.0293674     -0.0000000      0.0293670      0.0586781      0.0878774      0.1169098      0.1457196      0.1742518      0.2024522      0.2302675      0.2576446      0.2845308      0.3108755      0.3366288      0.3617412      0.3861646
      0.4098532      0.4327616      0.4548464      0.4760650      0.4963775      0.5157453      0.5341313      0.5515004      0.5678197      0.5830584      0.5971870      0.6101788      0.6220090      0.6326554      0.6420975      0.6503172      0.6572989      0.6630296      0.6674981      0.6706960      0.6726171      0.6732579     -0.6917018     -0.6910434     -0.6890696     -0.6857842     -0.6811933     -0.6753057     -0.6681327     -0.6596878     -0.6499872     -0.6390492     -0.6268948     -0.6135470     -0.5990314     -0.5833755     -0.5666090     -0.5487641     -0.5298744     -0.5099761     -0.4891071     -0.4673071     -0.4446175     -0.4210815     -0.3967440     -0.3716512     -0.3458510     -0.3193925     -0.2923260     -0.2647030     -0.2365761     -0.2079989     -0.1790258     -0.1497119     -0.1201130     -0.0902854     -0.0602861     -0.0301719     -0.0000000      0.0301715      0.0602855      0.0902848      0.1201125      0.1497116      0.1790254      0.2079983      0.2365757      0.2647027      0.2923256      0.3193919      0.3458506      0.3716510      0.3967436      0.4210810      0.4446171      0.4673069      0.4891068      0.5099757      0.5298741      0.5487638      0.5666087      0.5833750      0.5990312      0.6135469      0.6268946      0.6390489      0.6499870      0.6596876      0.6681325      0.6753055      0.6811932      0.6857842      0.6890696      0.6910434      0.6917018     -0.7110684     -0.7103916     -0.7083626     -0.7049851     -0.7002657
     -0.6942133     -0.6868393     -0.6781581     -0.6681858     -0.6569416     -0.6444469     -0.6307254     -0.6158034     -0.5997091     -0.5824732     -0.5641286     -0.5447101     -0.5242547     -0.5028014     -0.4803909     -0.4570661     -0.4328712     -0.4078522     -0.3820569     -0.3555343     -0.3283350     -0.3005107     -0.2721143     -0.2431999     -0.2138226     -0.1840383     -0.1539036     -0.1234760     -0.0928133     -0.0619740     -0.0310166     -0.0000000      0.0310163      0.0619734      0.0928127      0.1234755      0.1539033      0.1840378      0.2138220      0.2431994      0.2721140      0.3005102      0.3283345      0.3555340      0.3820567      0.4078518      0.4328707      0.4570657      0.4803908      0.5028011      0.5242543      0.5447098      0.5641284      0.5824729      0.5997087      0.6158032      0.6307253      0.6444467      0.6569413      0.6681857      0.6781579      0.6868392      0.6942131      0.7002656      0.7049851      0.7083626      0.7103915      0.7110684     -0.7314035     -0.7307074     -0.7286203     -0.7251464     -0.7202920     -0.7140664     -0.7064816     -0.6975520     -0.6872946     -0.6757289     -0.6628768     -0.6487629     -0.6334141     -0.6168596     -0.5991308     -0.5802616     -0.5602878     -0.5392474     -0.5171805     -0.4941292     -0.4701373     -0.4452504     -0.4195160     -0.3929830     -0.3657019     -0.3377247     -0.3091047     -0.2798962     -0.2501549     -0.2199375     -0.1893014     -0.1583049
     -0.1270071     -0.0954676     -0.0637463     -0.0319036     -0.0000000      0.0319033      0.0637458      0.0954669      0.1270066      0.1583046      0.1893009      0.2199369      0.2501545      0.2798959      0.3091042      0.3377242      0.3657015      0.3929828      0.4195156      0.4452499      0.4701369      0.4941290      0.5171801      0.5392469      0.5602874      0.5802613      0.5991305      0.6168592      0.6334139      0.6487628      0.6628765      0.6757285      0.6872944      0.6975519      0.7064815      0.7140662      0.7202918      0.7251462      0.7286203      0.7307073      0.7314035     -0.7527554     -0.7520390     -0.7498910     -0.7463155     -0.7413194     -0.7349122     -0.7271060     -0.7179157     -0.7073588     -0.6954554     -0.6822282     -0.6677023     -0.6519054     -0.6348675     -0.6166213     -0.5972011     -0.5766442     -0.5549896     -0.5322786     -0.5085543     -0.4838620     -0.4582486     -0.4317629     -0.4044553     -0.3763778     -0.3475839     -0.3181284     -0.2880672     -0.2574577     -0.2263581     -0.1948276     -0.1629263     -0.1307148     -0.0982545     -0.0656072     -0.0328350     -0.0000000      0.0328346      0.0656067      0.0982539      0.1307143      0.1629260      0.1948272      0.2263575      0.2574572      0.2880669      0.3181279      0.3475834      0.3763775      0.4044551      0.4317625      0.4582481      0.4838616      0.5085541      0.5322782      0.5549892      0.5766439      0.5972009      0.6166210
      0.6348671      0.6519052      0.6677021      0.6822279      0.6954551      0.7073585      0.7179155      0.7271059      0.7349120      0.7413194      0.7463155      0.7498909      0.7520389      0.7527554     -0.7751738     -0.7744361     -0.7722240     -0.7685421     -0.7633972     -0.7567991     -0.7487605     -0.7392965     -0.7284251     -0.7161673     -0.7025462     -0.6875876     -0.6713203     -0.6537750     -0.6349853     -0.6149868     -0.5938177     -0.5715182     -0.5481308     -0.5236999     -0.4982722     -0.4718961     -0.4446216     -0.4165007     -0.3875870     -0.3579356     -0.3276028     -0.2966464     -0.2651252     -0.2330995     -0.2006300     -0.1677786     -0.1346078     -0.1011807     -0.0675611     -0.0338129     -0.0000000      0.0338125      0.0675606      0.1011801      0.1346072      0.1677782      0.2006295      0.2330988      0.2651247      0.2966460      0.3276023      0.3579350      0.3875867      0.4165005      0.4446211      0.4718956      0.4982718      0.5236997      0.5481304      0.5715177      0.5938174      0.6149866      0.6349850      0.6537746      0.6713200      0.6875875      0.7025459      0.7161669      0.7284250      0.7392963      0.7487603      0.7567989      0.7633972      0.7685421      0.7722240      0.7744359      0.7751738     -0.7987149     -0.7979547     -0.7956756     -0.7918819     -0.7865807     -0.7797822     -0.7714994     -0.7617480     -0.7505466     -0.7379164     -0.7238816     -0.7084689     -0.6917076
     -0.6736294     -0.6542690     -0.6336632     -0.6118512     -0.5888745     -0.5647768     -0.5396041     -0.5134042     -0.4862270     -0.4581242     -0.4291494     -0.3993575     -0.3688056     -0.3375517     -0.3056552     -0.2731768     -0.2401784     -0.2067229     -0.1728738     -0.1386956     -0.1042535     -0.0696129     -0.0348398     -0.0000000      0.0348394      0.0696123      0.1042528      0.1386951      0.1728734      0.2067224      0.2401778      0.2731763      0.3056548      0.3375512      0.3688051      0.3993572      0.4291491      0.4581238      0.4862265      0.5134037      0.5396038      0.5647765      0.5888740      0.6118509      0.6336630      0.6542687      0.6736289      0.6917073      0.7084687      0.7238814      0.7379161      0.7505463      0.7617478      0.7714993      0.7797820      0.7865806      0.7918817      0.7956755      0.7979546      0.7987149     -0.8234317     -0.8226480     -0.8202984     -0.8163872     -0.8109221     -0.8039132     -0.7953741     -0.7853209     -0.7737728     -0.7607518     -0.7462827     -0.7303930     -0.7131130     -0.6944754     -0.6745160     -0.6532724     -0.6307855     -0.6070977     -0.5822543     -0.5563025     -0.5292919     -0.5012736     -0.4723012     -0.4424297     -0.4117160     -0.3802186     -0.3479975     -0.3151139     -0.2816304     -0.2476109     -0.2131200     -0.1782235     -0.1429877     -0.1074797     -0.0717671     -0.0359179     -0.0000000      0.0359175      0.0717665      0.1074790
      0.1429871      0.1782231      0.2131196      0.2476102      0.2816299      0.3151135      0.3479970      0.3802181      0.4117156      0.4424295      0.4723008      0.5012732      0.5292914      0.5563023      0.5822539      0.6070971      0.6307851      0.6532723      0.6745156      0.6944749      0.7131127      0.7303928      0.7462825      0.7607515      0.7737726      0.7853208      0.7953739      0.8039129      0.8109219      0.8163871      0.8202983      0.8226479      0.8234317     -0.8493853     -0.8485770     -0.8461531     -0.8421187     -0.8364813     -0.8292516     -0.8204433     -0.8100733     -0.7981612     -0.7847298     -0.7698047     -0.7534141     -0.7355894     -0.7163644     -0.6957759     -0.6738628     -0.6506671     -0.6262327     -0.6006063     -0.5738366     -0.5459745     -0.5170732     -0.4871875     -0.4563746     -0.4246928     -0.3922027     -0.3589659     -0.3250459     -0.2905071     -0.2554153     -0.2198373     -0.1838409     -0.1474945     -0.1108673     -0.0740291     -0.0370500     -0.0000000      0.0370496      0.0740285      0.1108666      0.1474939      0.1838405      0.2198369      0.2554146      0.2905066      0.3250456      0.3589655      0.3922021      0.4246924      0.4563743      0.4871871      0.5170727      0.5459740      0.5738363      0.6006059      0.6262321      0.6506667      0.6738626      0.6957755      0.7163640      0.7355891      0.7534139      0.7698044      0.7847294      0.7981610      0.8100731      0.8204432
      0.8292513      0.8364812      0.8421187      0.8461531      0.8485768      0.8493853     -0.8766359     -0.8758016     -0.8733001     -0.8691362     -0.8633180     -0.8558562     -0.8467653     -0.8360626     -0.8237684     -0.8099061     -0.7945021     -0.7775857     -0.7591891     -0.7393473     -0.7180982     -0.6954822     -0.6715422     -0.6463239     -0.6198753     -0.5922468     -0.5634909     -0.5336623     -0.5028179     -0.4710163     -0.4383180     -0.4047856     -0.3704825     -0.3354742     -0.2998273     -0.2636097     -0.2268903     -0.1897390     -0.1522265     -0.1144242     -0.0764042     -0.0382386     -0.0000000      0.0382382      0.0764035      0.1144235      0.1522259      0.1897386      0.2268898      0.2636090      0.2998268      0.3354739      0.3704820      0.4047850      0.4383177      0.4710160      0.5028174      0.5336618      0.5634904      0.5922465      0.6198750      0.6463234      0.6715419      0.6954820      0.7180979      0.7393468      0.7591888      0.7775855      0.7945018      0.8099057      0.8237681      0.8360624      0.8467652      0.8558559      0.8633178      0.8691362      0.8733000      0.8758015      0.8766359     -0.9052485     -0.9043870     -0.9018038     -0.8975041     -0.8914959     -0.8837906     -0.8744031     -0.8633510     -0.8506555     -0.8363407     -0.8204339     -0.8029654     -0.7839684     -0.7634790     -0.7415363     -0.7181821     -0.6934608     -0.6674194     -0.6401075     -0.6115772     -0.5818827
     -0.5510805     -0.5192294     -0.4863898     -0.4526244     -0.4179974     -0.3825748     -0.3464238     -0.3096134     -0.2722137     -0.2342958     -0.1959319     -0.1571950     -0.1181589     -0.0788979     -0.0394867     -0.0000000      0.0394863      0.0788973      0.1181582      0.1571944      0.1959315      0.2342953      0.2722130      0.3096129      0.3464235      0.3825743      0.4179968      0.4526240      0.4863896      0.5192289      0.5510800      0.5818822      0.6115769      0.6401071      0.6674188      0.6934604      0.7181819      0.7415360      0.7634785      0.7839681      0.8029652      0.8204336      0.8363403      0.8506552      0.8633508      0.8744029      0.8837904      0.8914957      0.8975040      0.9018038      0.9043868      0.9052485     -0.9352923     -0.9344022     -0.9317333     -0.9272909     -0.9210833     -0.9131222     -0.9034231     -0.8920043     -0.8788874     -0.8640975     -0.8476629     -0.8296145     -0.8099871     -0.7888176     -0.7661467     -0.7420174     -0.7164757     -0.6895700     -0.6613517     -0.6318744     -0.6011945     -0.5693700     -0.5364618     -0.5025324     -0.4676463     -0.4318701     -0.3952718     -0.3579211     -0.3198890     -0.2812481     -0.2420717     -0.2024346     -0.1624121     -0.1220805     -0.0815164     -0.0407972     -0.0000000      0.0407968      0.0815158      0.1220797      0.1624115      0.2024342      0.2420712      0.2812473      0.3198884      0.3579207      0.3952713      0.4318694
      0.4676459      0.5025321      0.5364614      0.5693696      0.6011940      0.6318742      0.6613513      0.6895694      0.7164753      0.7420171      0.7661464      0.7888171      0.8099868      0.8296143      0.8476626      0.8640972      0.8788871      0.8920041      0.9034229      0.9131219      0.9210830      0.9272907      0.9317333      0.9344020      0.9352923     -0.9668387     -0.9659185     -0.9631596     -0.9585673     -0.9521503     -0.9439208     -0.9338945     -0.9220906     -0.9085312     -0.8932426     -0.8762536     -0.8575965     -0.8373070     -0.8154236     -0.7919880     -0.7670448     -0.7406415     -0.7128284     -0.6836583     -0.6531869     -0.6214721     -0.5885742     -0.5545560     -0.5194822     -0.4834194     -0.4464366     -0.4086039     -0.3699934     -0.3306785     -0.2907343     -0.2502365     -0.2092625     -0.1678901     -0.1261981     -0.0842659     -0.0421733     -0.0000001      0.0421728      0.0842652      0.1261973      0.1678894      0.2092621      0.2502360      0.2907335      0.3306779      0.3699930      0.4086034      0.4464359      0.4834191      0.5194820      0.5545556      0.5885738      0.6214716      0.6531866      0.6836579      0.7128278      0.7406412      0.7670446      0.7919877      0.8154230      0.8373067      0.8575963      0.8762532      0.8932422      0.9085310      0.9220904      0.9338943      0.9439206      0.9521501      0.9585672      0.9631596      0.9659184      0.9668387     -0.9999614     -0.9990097