Variables = "x","y", "Velocity_x", "Velocity_y", "Velocity_whole value", "Pressure", "Absolute pressure", "Total pressure"
Zone i=74, j=82
-5.0000000e-001  0.0000000e+000  0.0000000e+000  0.0000000e+000  0.0000000e+000  6.0466313e-001  6.0466313e-001  6.0466313e-001 
-4.9976206e-001  1.0904820e-002  0.0000000e+000  0.0000000e+000  0.0000000e+000  6.0204929e-001  6.0204929e-001  6.0204929e-001 
-4.9881074e-001  3.2693729e-002  0.0000000e+000  0.0000000e+000  0.0000000e+000  5.9682155e-001  5.9682155e-001  5.9682155e-001 
-4.9690992e-001  5.4420430e-002  0.0000000e+000  0.0000000e+000  0.0000000e+000  5.8641821e-001  5.8641821e-001  5.8641821e-001 
-4.9406314e-001  7.6043531e-002  0.0000000e+000  0.0000000e+000  0.0000000e+000  5.7095152e-001  5.7095152e-001  5.7095152e-001 
-4.9027595e-001  9.7521864e-002  0.0000000e+000  0.0000000e+000  0.0000000e+000  5.5058444e-001  5.5058444e-001  5.5058444e-001 
-4.8555547e-001  1.1881460e-001  0.0000000e+000  0.0000000e+000  0.0000000e+000  5.2553576e-001  5.2553576e-001  5.2553576e-001 
-4.7991070e-001  1.3988116e-001  0.0000000e+000  0.0000000e+000  0.0000000e+000  4.9607193e-001  4.9607193e-001  4.9607193e-001 
-4.7335240e-001  1.6068140e-001  0.0000000e+000  0.0000000e+000  0.0000000e+000  4.6250811e-001  4.6250811e-001  4.6250811e-001 
-4.6589306e-001  1.8117580e-001  0.0000000e+000  0.0000000e+000  0.0000000e+000  4.2520201e-001  4.2520201e-001  4.2520201e-001 
-4.5754686e-001  2.0132530e-001  0.0000000e+000  0.0000000e+000  0.0000000e+000  3.8455278e-001  3.8455278e-001  3.8455278e-001 
-4.4832969e-001  2.2109160e-001  0.0000000e+000  0.0000000e+000  0.0000000e+000  3.4100029e-001  3.4100029e-001  3.4100029e-001 
-4.3825915e-001  2.4043705e-001  0.0000000e+000  0.0000000e+000  0.0000000e+000  2.9500794e-001  2.9500794e-001  2.9500794e-001 
-4.2735431e-001  2.5932479e-001  0.0000000e+000  0.0000000e+000  0.0000000e+000  2.4707560e-001  2.4707560e-001  2.4707560e-001 
-4.1563594e-001  2.7771890e-001  0.0000000e+000  0.0000000e+000  0.0000000e+000  1.9773236e-001  1.9773236e-001  1.9773236e-001 
-4.0312639e-001  2.9558435e-001  0.0000000e+000  0.0000000e+000  0.0000000e+000  1.4751270e-001  1.4751270e-001  1.4751270e-001 
-3.8984948e-001  3.1288713e-001  0.0000000e+000  0.0000000e+000  0.0000000e+000  9.6965775e-002  9.6965775e-002  9.6965775e-002 
-3.7583056e-001  3.2959434e-001  0.0000000e+000  0.0000000e+000  0.0000000e+000  4.6507027e-002  4.6507027e-002  4.6507027e-002 
-3.6109614e-001  3.4567416e-001  0.0000000e+000  0.0000000e+000  0.0000000e+000 -3.2733649e-003 -3.2733649e-003 -3.2733649e-003 
-3.4567434e-001  3.6109596e-001  0.0000000e+000  0.0000000e+000  0.0000000e+000 -5.1810239e-002 -5.1810239e-002 -5.1810239e-002 
-3.2959455e-001  3.7583035e-001  0.0000000e+000  0.0000000e+000  0.0000000e+000 -9.8407000e-002 -9.8407000e-002 -9.8407000e-002 
-3.1288737e-001  3.8984936e-001  0.0000000e+000  0.0000000e+000  0.0000000e+000 -1.4329101e-001 -1.4329101e-001 -1.4329101e-001 
-2.9558456e-001  4.0312624e-001  0.0000000e+000  0.0000000e+000  0.0000000e+000 -1.8532391e-001 -1.8532391e-001 -1.8532391e-001 
-2.7771911e-001  4.1563576e-001  0.0000000e+000  0.0000000e+000  0.0000000e+000 -2.2433273e-001 -2.2433273e-001 -2.2433273e-001 
-2.5932500e-001  4.2735410e-001  0.0000000e+000  0.0000000e+000  0.0000000e+000 -2.6001751e-001 -2.6001751e-001 -2.6001751e-001 
-2.4043724e-001  4.3825895e-001  0.0000000e+000  0.0000000e+000  0.0000000e+000 -2.9212922e-001 -2.9212922e-001 -2.9212922e-001 
-2.2109185e-001  4.4832954e-001  0.0000000e+000  0.0000000e+000  0.0000000e+000 -3.2042542e-001 -3.2042542e-001 -3.2042542e-001 
-2.0132560e-001  4.5754674e-001  0.0000000e+000  0.0000000e+000  0.0000000e+000 -3.4473595e-001 -3.4473595e-001 -3.4473595e-001 
-1.8117605e-001  4.6589294e-001  0.0000000e+000  0.0000000e+000  0.0000000e+000 -3.6496976e-001 -3.6496976e-001 -3.6496976e-001 
-1.6068165e-001  4.7335231e-001  0.0000000e+000  0.0000000e+000  0.0000000e+000 -3.8114232e-001 -3.8114232e-001 -3.8114232e-001 
-1.3988140e-001  4.7991067e-001  0.0000000e+000  0.0000000e+000  0.0000000e+000 -3.9335778e-001 -3.9335778e-001 -3.9335778e-001 
-1.1881486e-001  4.8555547e-001  0.0000000e+000  0.0000000e+000  0.0000000e+000 -4.0175682e-001 -4.0175682e-001 -4.0175682e-001 
-9.7522140e-002  4.9027592e-001  0.0000000e+000  0.0000000e+000  0.0000000e+000 -4.0656480e-001 -4.0656480e-001 -4.0656480e-001 
-7.6043770e-002  4.9406311e-001  0.0000000e+000  0.0000000e+000  0.0000000e+000 -4.0805554e-001 -4.0805554e-001 -4.0805554e-001 
-5.4420669e-002  4.9690986e-001  0.0000000e+000  0.0000000e+000  0.0000000e+000 -4.0656105e-001 -4.0656105e-001 -4.0656105e-001 
-3.2693975e-002  4.9881071e-001  0.0000000e+000  0.0000000e+000  0.0000000e+000 -4.0244609e-001 -4.0244609e-001 -4.0244609e-001 
-1.0904945e-002  4.9976206e-001  0.0000000e+000  0.0000000e+000  0.0000000e+000 -3.9610231e-001 -3.9610231e-001 -3.9610231e-001 
 1.0904820e-002  4.9976206e-001  0.0000000e+000  0.0000000e+000  0.0000000e+000 -3.8793680e-001 -3.8793680e-001 -3.8793680e-001 
 3.2693665e-002  4.9881074e-001  0.0000000e+000  0.0000000e+000  0.0000000e+000 -3.7835243e-001 -3.7835243e-001 -3.7835243e-001 
 5.4420240e-002  4.9690995e-001  0.0000000e+000  0.0000000e+000  0.0000000e+000 -3.6774001e-001 -3.6774001e-001 -3.6774001e-001 
 7.6043345e-002  4.9406320e-001  0.0000000e+000  0.0000000e+000  0.0000000e+000 -3.5646164e-001 -3.5646164e-001 -3.5646164e-001 
 9.7521797e-002  4.9027595e-001  0.0000000e+000  0.0000000e+000  0.0000000e+000 -3.4484845e-001 -3.4484845e-001 -3.4484845e-001 
 1.1881450e-001  4.8555550e-001  0.0000000e+000  0.0000000e+000  0.0000000e+000 -3.3318701e-001 -3.3318701e-001 -3.3318701e-001 
 1.3988096e-001  4.7991079e-001  0.0000000e+000  0.0000000e+000  0.0000000e+000 -3.2172087e-001 -3.2172087e-001 -3.2172087e-001 
 1.6068125e-001  4.7335249e-001  0.0000000e+000  0.0000000e+000  0.0000000e+000 -3.1064251e-001 -3.1064251e-001 -3.1064251e-001 
 1.8117574e-001  4.6589309e-001  0.0000000e+000  0.0000000e+000  0.0000000e+000 -3.0010620e-001 -3.0010620e-001 -3.0010620e-001 
 2.0132524e-001  4.5754689e-001  0.0000000e+000  0.0000000e+000  0.0000000e+000 -2.9022008e-001 -2.9022008e-001 -2.9022008e-001 
 2.2109145e-001  4.4832981e-001  0.0000000e+000  0.0000000e+000  0.0000000e+000 -2.8105405e-001 -2.8105405e-001 -2.8105405e-001 
 2.4043691e-001  4.3825918e-001  0.0000000e+000  0.0000000e+000  0.0000000e+000 -2.7264822e-001 -2.7264822e-001 -2.7264822e-001 
 2.5932476e-001  4.2735431e-001  0.0000000e+000  0.0000000e+000  0.0000000e+000 -2.6501480e-001 -2.6501480e-001 -2.6501480e-001 
 2.7771884e-001  4.1563594e-001  0.0000000e+000  0.0000000e+000  0.0000000e+000 -2.5814462e-001 -2.5814462e-001 -2.5814462e-001 
 2.9558420e-001  4.0312648e-001  0.0000000e+000  0.0000000e+000  0.0000000e+000 -2.5201127e-001 -2.5201127e-001 -2.5201127e-001 
 3.1288701e-001  3.8984966e-001  0.0000000e+000  0.0000000e+000  0.0000000e+000 -2.4657258e-001 -2.4657258e-001 -2.4657258e-001 
 3.2959431e-001  3.7583059e-001  0.0000000e+000  0.0000000e+000  0.0000000e+000 -2.4177457e-001 -2.4177457e-001 -2.4177457e-001 
 3.4567410e-001  3.6109620e-001  0.0000000e+000  0.0000000e+000  0.0000000e+000 -2.3755226e-001 -2.3755226e-001 -2.3755226e-001 
 3.6109579e-001  3.4567451e-001  0.0000000e+000  0.0000000e+000  0.0000000e+000 -2.3383257e-001 -2.3383257e-001 -2.3383257e-001 
 3.7583023e-001  3.2959470e-001  0.0000000e+000  0.0000000e+000  0.0000000e+000 -2.3053223e-001 -2.3053223e-001 -2.3053223e-001 
 3.8984936e-001  3.1288740e-001  0.0000000e+000  0.0000000e+000  0.0000000e+000 -2.2757307e-001 -2.2757307e-001 -2.2757307e-001 
 4.0312624e-001  2.9558462e-001  0.0000000e+000  0.0000000e+000  0.0000000e+000 -2.2490813e-001 -2.2490813e-001 -2.2490813e-001 
 4.1563570e-001  2.7771926e-001  0.0000000e+000  0.0000000e+000  0.0000000e+000 -2.2243305e-001 -2.2243305e-001 -2.2243305e-001 
 4.2735404e-001  2.5932515e-001  0.0000000e+000  0.0000000e+000  0.0000000e+000 -2.2010539e-001 -2.2010539e-001 -2.2010539e-001 
 4.3825895e-001  2.4043730e-001  0.0000000e+000  0.0000000e+000  0.0000000e+000 -2.1788223e-001 -2.1788223e-001 -2.1788223e-001 
 4.4832954e-001  2.2109190e-001  0.0000000e+000  0.0000000e+000  0.0000000e+000 -2.1574302e-001 -2.1574302e-001 -2.1574302e-001 
 4.5754671e-001  2.0132574e-001  0.0000000e+000  0.0000000e+000  0.0000000e+000 -2.1367514e-001 -2.1367514e-001 -2.1367514e-001 
 4.6589291e-001  1.8117620e-001  0.0000000e+000  0.0000000e+000  0.0000000e+000 -2.1168193e-001 -2.1168193e-001 -2.1168193e-001 
 4.7335231e-001  1.6068169e-001  0.0000000e+000  0.0000000e+000  0.0000000e+000 -2.0978004e-001 -2.0978004e-001 -2.0978004e-001 
 4.7991061e-001  1.3988146e-001  0.0000000e+000  0.0000000e+000  0.0000000e+000 -2.0799649e-001 -2.0799649e-001 -2.0799649e-001 
 4.8555535e-001  1.1881500e-001  0.0000000e+000  0.0000000e+000  0.0000000e+000 -2.0636603e-001 -2.0636603e-001 -2.0636603e-001 
 4.9027586e-001  9.7522289e-002  0.0000000e+000  0.0000000e+000  0.0000000e+000 -2.0492686e-001 -2.0492686e-001 -2.0492686e-001 
 4.9406311e-001  7.6043844e-002  0.0000000e+000  0.0000000e+000  0.0000000e+000 -2.0371799e-001 -2.0371799e-001 -2.0371799e-001 
 4.9690986e-001  5.4420739e-002  0.0000000e+000  0.0000000e+000  0.0000000e+000 -2.0277542e-001 -2.0277542e-001 -2.0277542e-001 
 4.9881071e-001  3.2694161e-002  0.0000000e+000  0.0000000e+000  0.0000000e+000 -2.0212901e-001 -2.0212901e-001 -2.0212901e-001 
 4.9976206e-001  1.0905065e-002  0.0000000e+000  0.0000000e+000  0.0000000e+000 -2.0180026e-001 -2.0180026e-001 -2.0180026e-001 
 5.0000000e-001  0.0000000e+000  0.0000000e+000  0.0000000e+000  0.0000000e+000 -2.0163588e-001 -2.0163588e-001 -2.0163588e-001 
-5.0489086e-001  0.0000000e+000  5.1989930e-004  0.0000000e+000  5.1989930e-004  5.9824961e-001  5.9824961e-001  5.9824973e-001 
-5.0465059e-001  1.1011487e-002  5.1990774e-004  3.6910165e-003  3.7274531e-003  5.9824950e-001  5.9824950e-001  5.9825647e-001 
-5.0368994e-001  3.3013530e-002  1.1604927e-003  1.1029084e-002  1.1089970e-002  5.9304702e-001  5.9304702e-001  5.9310853e-001 
-5.0177050e-001  5.4952752e-002  2.4314548e-003  1.8235605e-002  1.8396990e-002  5.8269507e-001  5.8269507e-001  5.8286428e-001 
-4.9889591e-001  7.6787367e-002  4.3118512e-003  2.5224704e-002  2.5590580e-002  5.6730551e-001  5.6730551e-001  5.6763297e-001 
-4.9507165e-001  9.8475806e-002  6.7709493e-003  3.1913787e-002  3.2624155e-002  5.4704070e-001  5.4704070e-001  5.4757285e-001 
-4.9030501e-001  1.1997680e-001  9.7681079e-003  3.8224258e-002  3.9452627e-002  5.2211905e-001  5.2211905e-001  5.2289730e-001 
-4.8460501e-001  1.4124940e-001  1.3253625e-002  4.4082984e-002  4.6032250e-002  4.9280530e-001  4.9280530e-001  4.9386477e-001 
-4.7798258e-001  1.6225313e-001  1.7169535e-002  4.9423158e-002  5.2320566e-002  4.5941415e-001  4.5941415e-001  4.6078289e-001 
-4.7045028e-001  1.8294799e-001  2.1450046e-002  5.4185346e-002  5.8276549e-002  4.2230198e-001  4.2230198e-001  4.2400005e-001 
-4.6202242e-001  2.0329462e-001  2.6022635e-002  5.8317609e-002  6.3860171e-002  3.8186684e-001  3.8186684e-001  3.8390592e-001 
-4.5271510e-001  2.2325428e-001  3.0808901e-002  6.1778076e-002  6.9034189e-002  3.3854690e-001  3.3854690e-001  3.4092975e-001 
-4.4254604e-001  2.4278893e-001  3.5726339e-002  6.4533681e-002  7.3762909e-002  2.9280442e-001  2.9280442e-001  2.9552490e-001 
-4.3153450e-001  2.6186141e-001  4.0687855e-002  6.6561103e-002  7.8012064e-002  2.4513733e-001  2.4513733e-001  2.4818027e-001 
-4.1970155e-001  2.8043547e-001  4.5605432e-002  6.7849517e-002  8.1752136e-002  1.9607180e-001  1.9607180e-001  1.9941351e-001 
-4.0706968e-001  2.9847568e-001  5.0392043e-002  6.8398446e-002  8.4957078e-002  1.4614047e-001  1.4614047e-001  1.4974932e-001 
-3.9366290e-001  3.1594771e-001  5.4967288e-002  6.8228267e-002  8.7615632e-002  9.5883071e-002  9.5883071e-002  9.9721320e-002 
-3.7950680e-001  3.3281833e-001  5.9252560e-002  6.7369543e-002  8.9719124e-002  4.5726083e-002  4.5726083e-002  4.9750842e-002 
-3.6462826e-001  3.4905541e-001  6.3153401e-002  6.5836050e-002  9.1229036e-002 -3.7435547e-003 -3.7435547e-003  4.1781404e-004 
-3.4905559e-001  3.6462808e-001  6.6590540e-002  6.3672625e-002  9.2133075e-002 -5.1974762e-002 -5.1974762e-002 -4.7730509e-002 
-3.3281851e-001  3.7950659e-001  6.9484897e-002  6.0960468e-002  9.2435546e-002 -9.8368689e-002 -9.8368689e-002 -9.4096527e-002 
-3.1594789e-001  3.9366272e-001  7.1839698e-002  5.7681568e-002  9.2130914e-002 -1.4283364e-001 -1.4283364e-001 -1.3858958e-001 
-2.9847586e-001  4.0706950e-001  7.3536336e-002  5.3981233e-002  9.1222622e-002 -1.8455881e-001 -1.8455881e-001 -1.8039803e-001 
-2.8043568e-001  4.1970137e-001  7.4561872e-002  4.9922042e-002  8.9731172e-002 -2.2327486e-001 -2.2327486e-001 -2.1924901e-001 
-2.6186162e-001  4.3153435e-001  7.4894100e-002  4.5582257e-002  8.7674789e-002 -2.5867569e-001 -2.5867569e-001 -2.5483227e-001 
-2.4278912e-001  4.4254586e-001  7.4520297e-002  4.1051801e-002  8.5079521e-002 -2.9052648e-001 -2.9052648e-001 -2.8690723e-001 
-2.2325450e-001  4.5271498e-001  7.3438644e-002  3.6414314e-002  8.1970952e-002 -3.1857476e-001 -3.1857476e-001 -3.1521514e-001 
-2.0329487e-001  4.6202230e-001  7.1664140e-002  3.1755500e-002  7.8384697e-002 -3.4265643e-001 -3.4265643e-001 -3.3958435e-001 
-1.8294823e-001  4.7045016e-001  6.9234677e-002  2.7165156e-002  7.4373290e-002 -3.6268839e-001 -3.6268839e-001 -3.5992271e-001 
-1.6225338e-001  4.7798249e-001  6.6204727e-002  2.2729347e-002  6.9997780e-002 -3.7868816e-001 -3.7868816e-001 -3.7623832e-001 
-1.4124967e-001  4.8460498e-001  6.2636159e-002  1.8522894e-002  6.5317579e-002 -3.9076188e-001 -3.9076188e-001 -3.8862869e-001 
-1.1997705e-001  4.9030498e-001  5.8603525e-002  1.4611892e-002  6.0397688e-002 -3.9905182e-001 -3.9905182e-001 -3.9722788e-001 
-9.8476052e-002  4.9507165e-001  5.4193370e-002  1.1052591e-002  5.5308960e-002 -4.0378568e-001 -4.0378568e-001 -4.0225613e-001 
-7.6787606e-002  4.9889588e-001  4.9498521e-002  7.8887409e-003  5.0123207e-002 -4.0523943e-001 -4.0523943e-001 -4.0398327e-001 
-5.4952994e-002  5.0177050e-001  4.4617988e-002  5.1499209e-003  4.4914212e-002 -4.0374392e-001 -4.0374392e-001 -4.0273529e-001 
-3.3013776e-002  5.0368994e-001  3.9651491e-002  2.8521356e-003  3.9753936e-002 -3.9966446e-001 -3.9966446e-001 -3.9887428e-001 
-1.1011613e-002  5.0465059e-001  3.4697417e-002  9.9701015e-004  3.4711737e-002 -3.9339066e-001 -3.9339066e-001 -3.9278820e-001 
 1.1011487e-002  5.0465059e-001  2.9848859e-002 -4.2734673e-004  2.9851917e-002 -3.8532725e-001 -3.8532725e-001 -3.8488168e-001 
 3.3013463e-002  5.0368994e-001  2.5189981e-002 -1.4448726e-003  2.5231386e-002 -3.7587351e-001 -3.7587351e-001 -3.7555519e-001 
 5.4952566e-002  5.0177050e-001  2.0793172e-002 -2.0903361e-003  2.0897979e-002 -3.6541551e-001 -3.6541551e-001 -3.6519715e-001 
 7.6787174e-002  4.9889594e-001  1.6717331e-002 -2.4060889e-003  1.6889596e-002 -3.5431105e-001 -3.5431105e-001 -3.5416842e-001 
 9.8475739e-002  4.9507165e-001  1.3006619e-002 -2.4404721e-003  1.3233596e-002 -3.4288472e-001 -3.4288472e-001 -3.4279716e-001 
 1.1997673e-001  4.9030501e-001  9.6897976e-003 -2.2442618e-003  9.9463006e-003 -3.3141908e-001 -3.3141908e-001 -3.3136961e-001 
 1.4124922e-001  4.8460507e-001  6.7804465e-003 -1.8685972e-003  7.0332149e-003 -3.2015133e-001 -3.2015133e-001 -3.2012659e-001 
 1.6225298e-001  4.7798264e-001  4.2794887e-003 -1.3633661e-003  4.4914130e-003 -3.0926919e-001 -3.0926919e-001 -3.0925912e-001 
 1.8294795e-001  4.7045028e-001  2.1761127e-003 -7.7391439e-004  2.3096341e-003 -2.9892311e-001 -2.9892311e-001 -2.9892045e-001 
 2.0329455e-001  4.6202248e-001  4.4871302e-004 -1.4062568e-004  4.7023289e-004 -2.8921753e-001 -2.8921753e-001 -2.8921741e-001 
 2.2325410e-001  4.5271519e-001 -9.3121873e-004  5.0199882e-004  1.0579089e-003 -2.8021941e-001 -2.8021941e-001 -2.8021884e-001 
 2.4278878e-001  4.4254610e-001 -1.9975593e-003  1.1262440e-003  2.2931788e-003 -2.7196661e-001 -2.7196661e-001 -2.7196398e-001 
 2.6186138e-001  4.3153453e-001 -2.7877714e-003  1.7112134e-003  3.2710733e-003 -2.6446998e-001 -2.6446998e-001 -2.6446462e-001 
 2.8043538e-001  4.1970155e-001 -3.3407796e-003  2.2426185e-003  4.0236982e-003 -2.5771925e-001 -2.5771925e-001 -2.5771114e-001 
 2.9847550e-001  4.0706974e-001 -3.6957006e-003  2.7126556e-003  4.5843977e-003 -2.5168771e-001 -2.5168771e-001 -2.5167719e-001 
 3.1594753e-001  3.9366302e-001 -3.8901397e-003  3.1191632e-003  4.9862177e-003 -2.4633351e-001 -2.4633351e-001 -2.4632108e-001 
 3.3281827e-001  3.7950686e-001 -3.9589177e-003  3.4646511e-003  5.2608778e-003 -2.4160370e-001 -2.4160370e-001 -2.4158986e-001 
 3.4905538e-001  3.6462831e-001 -3.9328439e-003  3.7549357e-003  5.4375366e-003 -2.3743485e-001 -2.3743485e-001 -2.3742007e-001 
 3.6462793e-001  3.4905577e-001 -3.8376821e-003  3.9976323e-003  5.5415584e-003 -2.3375632e-001 -2.3375632e-001 -2.3374097e-001 
 3.7950647e-001  3.3281869e-001 -3.6930032e-003  4.2006182e-003  5.5931625e-003 -2.3048960e-001 -2.3048960e-001 -2.3047395e-001 
 3.9366269e-001  3.1594795e-001 -3.5130400e-003  4.3691704e-003  5.6063444e-003 -2.2755951e-001 -2.2755951e-001 -2.2754379e-001 
 4.0706950e-001  2.9847592e-001 -3.3107237e-003  4.5041307e-003  5.5899988e-003 -2.2490928e-001 -2.2490928e-001 -2.2489364e-001 
 4.1970134e-001  2.8043583e-001 -3.0871313e-003  4.6083885e-003  5.5468571e-003 -2.2245391e-001 -2.2245391e-001 -2.2243853e-001 
 4.3153429e-001  2.6186180e-001 -2.8458205e-003  4.6766242e-003  5.4744412e-003 -2.2014757e-001 -2.2014757e-001 -2.2013257e-001 
 4.4254583e-001  2.4278921e-001 -2.5882279e-003  4.7013443e-003  5.3667086e-003 -2.1794844e-001 -2.1794844e-001 -2.1793404e-001 
 4.5271498e-001  2.2325455e-001 -2.3154567e-003  4.6737082e-003  5.2158306e-003 -2.1583669e-001 -2.1583669e-001 -2.1582308e-001 
 4.6202227e-001  2.0329505e-001 -2.0301305e-003  4.5842961e-003  5.0137015e-003 -2.1379994e-001 -2.1379994e-001 -2.1378738e-001 
 4.7045013e-001  1.8294843e-001 -1.7362006e-003  4.4235573e-003  4.7520786e-003 -2.1184109e-001 -2.1184109e-001 -2.1182980e-001 
 4.7798249e-001  1.6225345e-001 -1.4395426e-003  4.1835648e-003  4.4243075e-003 -2.0997575e-001 -2.0997575e-001 -2.0996596e-001 
 4.8460495e-001  1.4124973e-001 -1.1479282e-003  3.8592000e-003  4.0263091e-003 -2.0822963e-001 -2.0822963e-001 -2.0822152e-001 
 4.9030489e-001  1.1997722e-001 -8.7073981e-004  3.4490649e-003  3.5572795e-003 -2.0663576e-001 -2.0663576e-001 -2.0662943e-001 
 4.9507159e-001  9.8476239e-002 -6.1821588e-004  2.9560258e-003  3.0199799e-003 -2.0523059e-001 -2.0523059e-001 -2.0522603e-001 
 4.9889588e-001  7.6787673e-002 -4.0073125e-004  2.3873360e-003  2.4207351e-003 -2.0405138e-001 -2.0405138e-001 -2.0404844e-001 
 5.0177050e-001  5.4953061e-002 -2.2790607e-004  1.7545925e-003  1.7693321e-003 -2.0313257e-001 -2.0313257e-001 -2.0313101e-001 
 5.0368989e-001  3.3013962e-002 -1.0781657e-004  1.0731163e-003  1.0785189e-003 -2.0250274e-001 -2.0250274e-001 -2.0250216e-001 
 5.0465053e-001  1.1011735e-002 -4.6250112e-005  3.6116340e-004  3.6411273e-004 -2.0218252e-001 -2.0218252e-001 -2.0218246e-001 
 5.0489086e-001  0.0000000e+000 -4.6247485e-005 -5.4210109e-020  4.6247485e-005 -2.0218255e-001 -2.0218255e-001 -2.0218255e-001 
-5.1491672e-001  0.0000000e+000  6.7065973e-003  0.0000000e+000  6.7065973e-003  5.9046060e-001  5.9046060e-001  5.9048307e-001 
-5.1467168e-001  1.1230147e-002  6.7065847e-003  1.0174987e-002  1.2186412e-002  5.9046048e-001  5.9046048e-001  5.9053475e-001 
-5.1369190e-001  3.3669095e-002  8.4502045e-003  3.0408330e-002  3.1560615e-002  5.8530974e-001  5.8530974e-001  5.8580780e-001 
-5.1173437e-001  5.6043975e-002  1.1910127e-002  5.0293133e-002  5.1684141e-002  5.7506317e-001  5.7506317e-001  5.7639879e-001 
-5.0880265e-001  7.8312173e-002  1.7031791e-002  6.9601893e-002  7.1655467e-002  5.5983156e-001  5.5983156e-001  5.6239879e-001 
-5.0490248e-001  1.0043129e-001  2.3734763e-002  8.8114925e-002  9.1255568e-002  5.3977644e-001  5.3977644e-001  5.4394025e-001 
-5.0004119e-001  1.2235922e-001  3.1912941e-002  1.0562352e-001  1.1033931e-001  5.1511496e-001  5.1511496e-001  5.2120233e-001 
-4.9422804e-001  1.4405425e-001  4.1436236e-002  1.2193160e-001  1.2877995e-001  4.8610896e-001  4.8610896e-001  4.9440110e-001 
-4.8747408e-001  1.6547507e-001  5.2152093e-002  1.3685928e-001  1.4645922e-001  4.5307168e-001  4.5307168e-001  4.6379682e-001 
-4.7979221e-001  1.8658090e-001  6.3887402e-002  1.5024550e-001  1.6326454e-001  4.1635710e-001  4.1635710e-001  4.2968476e-001 
-4.7119701e-001  2.0733155e-001  7.6451108e-002  1.6194922e-001  1.7908746e-001  3.7636083e-001  3.7636083e-001  3.9239699e-001 
-4.6170485e-001  2.2768755e-001  8.9635916e-002  1.7185433e-001  1.9382598e-001  3.3351758e-001  3.3351758e-001  3.5230184e-001 
-4.5133382e-001  2.4761011e-001  1.0322199e-001  1.7986667e-001  2.0738080e-001  2.8828728e-001  2.8828728e-001  3.0979067e-001 
-4.4010365e-001  2.6706132e-001  1.1697803e-001  1.8591939e-001  2.1965855e-001  2.4116395e-001  2.4116395e-001  2.6528889e-001 
-4.2803574e-001  2.8600422e-001  1.3066876e-001  1.8997467e-001  2.3057471e-001  1.9266771e-001  1.9266771e-001  2.1925005e-001 
-4.1515306e-001  3.0440265e-001  1.4406037e-001  1.9202200e-001  2.4005382e-001  1.4332749e-001  1.4332749e-001  1.7214040e-001 
-4.0148005e-001  3.2222164e-001  1.5692981e-001  1.9208531e-001  2.4803978e-001  9.3663655e-002  9.3663655e-002  1.2442552e-001 
-3.8704282e-001  3.3942726e-001  1.6906373e-001  1.9026947e-001  2.5452900e-001  4.4125233e-002  4.4125233e-002  7.6517738e-002 
-3.7186879e-001  3.5598677e-001  1.8020238e-001  1.8660161e-001  2.5940907e-001 -4.7073946e-003 -4.7073946e-003  2.8939135e-002 
-3.5598692e-001  3.7186864e-001  1.9013815e-001  1.8118598e-001  2.6264209e-001 -5.2312028e-002 -5.2312028e-002 -1.7821591e-002 
-3.3942744e-001  3.8704264e-001  1.9865288e-001  1.7416526e-001  2.6419029e-001 -9.8290168e-002 -9.8290168e-002 -6.3391916e-002 
-3.2222182e-001  4.0147987e-001  2.0564511e-001  1.6563725e-001  2.6405609e-001 -1.4189605e-001 -1.4189605e-001 -1.0703325e-001 
-3.0440286e-001  4.1515288e-001  2.1091945e-001  1.5586197e-001  2.6225936e-001 -1.8299037e-001 -1.8299037e-001 -1.4860038e-001 
-2.8600442e-001  4.2803559e-001  2.1436168e-001  1.4501560e-001  2.5880581e-001 -2.2110631e-001 -2.2110631e-001 -1.8761608e-001 
-2.6706153e-001  4.4010353e-001  2.1589680e-001  1.3331288e-001  2.5373954e-001 -2.5592509e-001 -2.5592509e-001 -2.2373322e-001 
-2.4761030e-001  4.5133373e-001  2.1547790e-001  1.2099234e-001  2.4712320e-001 -2.8724095e-001 -2.8724095e-001 -2.5670603e-001 
-2.2768778e-001  4.6170473e-001  2.1308997e-001  1.0829119e-001  2.3902786e-001 -3.1478098e-001 -3.1478098e-001 -2.8621382e-001 
-2.0733178e-001  4.7119689e-001  2.0874867e-001  9.5433310e-002  2.2952892e-001 -3.3839357e-001 -3.3839357e-001 -3.1205180e-001 
-1.8658110e-001  4.7979209e-001  2.0253849e-001  8.2658298e-002  2.1875611e-001 -3.5801163e-001 -3.5801163e-001 -3.3408451e-001 
-1.6547531e-001  4.8747402e-001  1.9458662e-001  7.0205271e-002  2.0686404e-001 -3.7365729e-001 -3.7365729e-001 -3.5226092e-001 
-1.4405450e-001  4.9422801e-001  1.8504727e-001  5.8288164e-002  1.9401032e-001 -3.8544035e-001 -3.8544035e-001 -3.6662036e-001 
-1.2235947e-001  5.0004113e-001  1.7411153e-001  4.7098204e-002  1.8036924e-001 -3.9350668e-001 -3.9350668e-001 -3.7724015e-001 
-1.0043153e-001  5.0490248e-001  1.6200694e-001  3.6801480e-002  1.6613428e-001 -3.9808869e-001 -3.9808869e-001 -3.8428840e-001 
-7.8312412e-002  5.0880265e-001  1.4898215e-001  2.7532347e-002  1.5150483e-001 -3.9946648e-001 -3.9946648e-001 -3.8798964e-001 
-5.6044217e-002  5.1173437e-001  1.3530655e-001  1.9389259e-002  1.3668872e-001 -3.9796895e-001 -3.9796895e-001 -3.8862705e-001 
-3.3669345e-002  5.1369190e-001  1.2125779e-001  1.2433389e-002  1.2189356e-001 -3.9396223e-001 -3.9396223e-001 -3.8653320e-001 
-1.1230276e-002  5.1467168e-001  1.0711404e-001  6.6876588e-003  1.0732261e-001 -3.8783181e-001 -3.8783181e-001 -3.8207275e-001 
 1.1230147e-002  5.1467168e-001  9.3143873e-002  2.1369336e-003  9.3168385e-002 -3.7997767e-001 -3.7997767e-001 -3.7563750e-001 
 3.3669028e-002  5.1369190e-001  7.9596333e-002 -1.2675496e-003  7.9606429e-002 -3.7079173e-001 -3.7079173e-001 -3.6762315e-001 
 5.6043789e-002  5.1173437e-001  6.6691004e-002 -3.6071301e-003  6.6788480e-002 -3.6065027e-001 -3.6065027e-001 -3.5841992e-001 
 7.8311980e-002  5.0880271e-001  5.4612197e-002 -4.9866545e-003  5.4839391e-002 -3.4990236e-001 -3.4990236e-001 -3.4839869e-001 
 1.0043122e-001  5.0490248e-001  4.3504778e-002 -5.5297902e-003  4.3854810e-002 -3.3885911e-001 -3.3885911e-001 -3.3789748e-001 
 1.2235918e-001  5.0004125e-001  3.3471443e-002 -5.3716260e-003  3.3899732e-002 -3.2779479e-001 -3.2779479e-001 -3.2722020e-001 
 1.4405409e-001  4.9422809e-001  2.4571225e-002 -4.6504852e-003  2.5007442e-002 -3.1693378e-001 -3.1693378e-001 -3.1662109e-001 
 1.6547488e-001  4.8747414e-001  1.6825574e-002 -3.5049643e-003  1.7186759e-002 -3.0645385e-001 -3.0645385e-001 -3.0630615e-001 
 1.8658082e-001  4.7979224e-001  1.0220487e-002 -2.0634162e-003  1.0426698e-002 -2.9649779e-001 -2.9649779e-001 -2.9644343e-001 
 2.0733148e-001  4.7119707e-001  4.7094161e-003 -4.4264295e-004  4.7301725e-003 -2.8716230e-001 -2.8716230e-001 -2.8715113e-001 
 2.2768734e-001  4.6170497e-001  2.2249670e-004  1.2555064e-003  1.2750691e-003 -2.7850837e-001 -2.7850837e-001 -2.7850756e-001 
 2.4760991e-001  4.5133394e-001 -3.3281764e-003  2.9473989e-003  4.4456627e-003 -2.7056938e-001 -2.7056938e-001 -2.7055949e-001 
 2.6706126e-001  4.4010371e-001 -6.0437224e-003  4.5678886e-003  7.5757629e-003 -2.6335314e-001 -2.6335314e-001 -2.6332444e-001 
 2.8600416e-001  4.2803574e-001 -8.0313748e-003  6.0703522e-003  1.0067381e-002 -2.5684726e-001 -2.5684726e-001 -2.5679660e-001 
 3.0440247e-001  4.1515309e-001 -9.4010951e-003  7.4264314e-003  1.1980504e-002 -2.5102443e-001 -2.5102443e-001 -2.5095266e-001 
 3.2222146e-001  4.0148014e-001 -1.0260277e-002  8.6236401e-003  1.3403002e-002 -2.4584347e-001 -2.4584347e-001 -2.4575365e-001 
 3.3942717e-001  3.8704285e-001 -1.0709794e-002  9.6627213e-003  1.4424558e-002 -2.4125350e-001 -2.4125350e-001 -2.4114946e-001 
 3.5598671e-001  3.7186885e-001 -1.0840317e-002  1.0553732e-002  1.5129235e-002 -2.3719423e-001 -2.3719423e-001 -2.3707978e-001 
 3.7186849e-001  3.5598707e-001 -1.0729531e-002  1.1311746e-002  1.5590973e-002 -2.3360008e-001 -2.3360008e-001 -2.3347855e-001 
 3.8704246e-001  3.3942759e-001 -1.0439867e-002  1.1952684e-002  1.5870018e-002 -2.3040229e-001 -2.3040229e-001 -2.3027636e-001 
 4.0147981e-001  3.2222188e-001 -1.0019457e-002  1.2488316e-002  1.6010858e-002 -2.2753181e-001 -2.2753181e-001 -2.2740363e-001 
 4.1515282e-001  3.0440289e-001 -9.5045865e-003  1.2920584e-002  1.6039908e-002 -2.2491172e-001 -2.2491172e-001 -2.2478308e-001 
 4.2803550e-001  2.8600457e-001 -8.9130318e-003  1.3248633e-002  1.5967730e-002 -2.2249672e-001 -2.2249672e-001 -2.2236924e-001 
 4.4010341e-001  2.6706171e-001 -8.2602669e-003  1.3460298e-002  1.5792772e-002 -2.2023411e-001 -2.2023411e-001 -2.2010940e-001 
 4.5133367e-001  2.4761039e-001 -7.5555425e-003  1.3534986e-002  1.5501034e-002 -2.1808425e-001 -2.1808425e-001 -2.1796410e-001 
 4.6170473e-001  2.2768782e-001 -6.8061952e-003  1.3449694e-002  1.5073771e-002 -2.1602876e-001 -2.1602876e-001 -2.1591516e-001 
 4.7119686e-001  2.0733196e-001 -6.0225278e-003  1.3179506e-002  1.4490349e-002 -2.1405584e-001 -2.1405584e-001 -2.1395086e-001 
 4.7979206e-001  1.8658130e-001 -5.2177012e-003  1.2700392e-002  1.3730417e-002 -2.1216737e-001 -2.1216737e-001 -2.1207310e-001 
 4.8747399e-001  1.6547537e-001 -4.4088238e-003  1.1992988e-002  1.2777695e-002 -2.1037698e-001 -2.1037698e-001 -2.1029535e-001 
 4.9422798e-001  1.4405458e-001 -3.6173207e-003  1.1045670e-002  1.1622901e-002 -2.0870760e-001 -2.0870760e-001 -2.0864005e-001 
 5.0004113e-001  1.2235967e-001 -2.8681483e-003  9.8567903e-003  1.0265602e-002 -2.0718867e-001 -2.0718867e-001 -2.0713598e-001 
 5.0490248e-001  1.0043173e-001 -2.1881764e-003  8.4360875e-003  8.7152561e-003 -2.0585324e-001 -2.0585324e-001 -2.0581526e-001 
 5.0880265e-001  7.8312479e-002 -1.6043413e-003  6.8051489e-003  6.9917068e-003 -2.0473480e-001 -2.0473480e-001 -2.0471036e-001 
 5.1173437e-001  5.6044288e-002 -1.1415218e-003  4.9969289e-003  5.1256581e-003 -2.0386472e-001 -2.0386472e-001 -2.0385158e-001 
 5.1369190e-001  3.3669535e-002 -8.2043401e-004  3.0542284e-003  3.1625025e-003 -2.0326890e-001 -2.0326890e-001 -2.0326389e-001 
 5.1467162e-001  1.1230400e-002 -6.5599848e-004  1.0275923e-003  1.2191308e-003 -2.0296618e-001 -2.0296618e-001 -2.0296544e-001 
 5.1491672e-001  0.0000000e+000 -6.5600302e-004  0.0000000e+000  6.5600302e-004 -2.0296620e-001 -2.0296620e-001 -2.0296599e-001 
-5.2544403e-001  0.0000000e+000  1.9036243e-002  0.0000000e+000  1.9036243e-002  5.8492142e-001  5.8492142e-001  5.8510262e-001 
-5.2519399e-001  1.1459747e-002  1.9036241e-002  1.5558283e-002  2.4585335e-002  5.8492130e-001  5.8492130e-001  5.8522350e-001 
-5.2419424e-001  3.4357455e-002  2.1670423e-002  4.6504304e-002  5.1305532e-002  5.7982546e-001  5.7982546e-001  5.8114159e-001 
-5.2219665e-001  5.7189785e-002  2.6899016e-002  7.6940641e-002  8.1507176e-002  5.6968695e-001  5.6968695e-001  5.7300866e-001 
-5.1920503e-001  7.9913251e-002  3.4643557e-002  1.0653408e-001  1.1202538e-001  5.5461478e-001  5.5461478e-001  5.6088960e-001 
-5.1522511e-001  1.0248460e-001  4.4788104e-002  1.3496232e-001  1.4219987e-001  5.3476900e-001  5.3476900e-001  5.4487938e-001 
-5.1026446e-001  1.2486085e-001  5.7179429e-002  1.6191779e-001  1.7171738e-001  5.1036340e-001  5.1036340e-001  5.2510685e-001 
-5.0433248e-001  1.4699942e-001  7.1630001e-002  1.8711081e-001  2.0035297e-001  4.8165572e-001  4.8165572e-001  5.0172639e-001 
-4.9744040e-001  1.6885820e-001  8.7917857e-002  2.1027370e-001  2.2791353e-001  4.4895688e-001  4.4895688e-001  4.7492915e-001 